version 2
run General-28-20160117-11:15:12-6434
attr configname General
attr datetime 20160117-11:15:12
attr experiment General
attr inifile Carrefour_A.ini
attr iterationvars ""
attr iterationvars2 $repetition=28
attr measurement ""
attr network simulation_A_EXP_Sun_a.Carrefour_A
attr processid 6434
attr repetition 28
attr replication #28
attr resultdir results
attr runnumber 28
attr seedset 28

vector 0  Carrefour_A  queueingTime:vector  ETV
attr ""  ""
attr source  startBeingServed
0	4	4	4
