version 2
run General-12-20160117-11:15:08-6354
attr configname General
attr datetime 20160117-11:15:08
attr experiment General
attr inifile Carrefour_A.ini
attr iterationvars ""
attr iterationvars2 $repetition=12
attr measurement ""
attr network simulation_A_EXP_Sun_a.Carrefour_A
attr processid 6354
attr repetition 12
attr replication #12
attr resultdir results
attr runnumber 12
attr seedset 12

vector 0  Carrefour_A  queueingTime:vector  ETV
attr ""  ""
attr source  startBeingServed
0	7	4	4
