version 2
run General-14-20160117-11:15:09-6364
attr configname General
attr datetime 20160117-11:15:09
attr experiment General
attr inifile Carrefour_A.ini
attr iterationvars ""
attr iterationvars2 $repetition=14
attr measurement ""
attr network simulation_A_EXP_Sun_a.Carrefour_A
attr processid 6364
attr repetition 14
attr replication #14
attr resultdir results
attr runnumber 14
attr seedset 14

vector 0  Carrefour_A  queueingTime:vector  ETV
attr ""  ""
attr source  startBeingServed
0	4	4	4
