version 2
run General-27-20160117-11:15:12-6429
attr configname General
attr datetime 20160117-11:15:12
attr experiment General
attr inifile Carrefour_A.ini
attr iterationvars ""
attr iterationvars2 $repetition=27
attr measurement ""
attr network simulation_A_EXP_Sun_a.Carrefour_A
attr processid 6429
attr repetition 27
attr replication #27
attr resultdir results
attr runnumber 27
attr seedset 27

vector 0  Carrefour_A  queueingTime:vector  ETV
attr ""  ""
attr source  startBeingServed
0	7	4	4
