version 2
run General-2-20160117-11:15:05-6298
attr configname General
attr datetime 20160117-11:15:05
attr experiment General
attr inifile Carrefour_A.ini
attr iterationvars ""
attr iterationvars2 $repetition=2
attr measurement ""
attr network simulation_A_EXP_Sun_a.Carrefour_A
attr processid 6298
attr repetition 2
attr replication #2
attr resultdir results
attr runnumber 2
attr seedset 2

vector 0  Carrefour_A  queueingTime:vector  ETV
attr ""  ""
attr source  startBeingServed
0	4	4	4
