version 2
run General-24-20160117-11:15:11-6414
attr configname General
attr datetime 20160117-11:15:11
attr experiment General
attr inifile Carrefour_A.ini
attr iterationvars ""
attr iterationvars2 $repetition=24
attr measurement ""
attr network simulation_A_EXP_Sun_a.Carrefour_A
attr processid 6414
attr repetition 24
attr replication #24
attr resultdir results
attr runnumber 24
attr seedset 24

vector 0  Carrefour_A  queueingTime:vector  ETV
attr ""  ""
attr source  startBeingServed
0	4	4	4
