version 2
run General-5-20160117-11:15:06-6319
attr configname General
attr datetime 20160117-11:15:06
attr experiment General
attr inifile Carrefour_A.ini
attr iterationvars ""
attr iterationvars2 $repetition=5
attr measurement ""
attr network simulation_A_EXP_Sun_a.Carrefour_A
attr processid 6319
attr repetition 5
attr replication #5
attr resultdir results
attr runnumber 5
attr seedset 5

vector 0  Carrefour_A  queueingTime:vector  ETV
attr ""  ""
attr source  startBeingServed
0	4	4	4
