version 2
run General-25-20160117-11:15:11-6419
attr configname General
attr datetime 20160117-11:15:11
attr experiment General
attr inifile Carrefour_A.ini
attr iterationvars ""
attr iterationvars2 $repetition=25
attr measurement ""
attr network simulation_A_EXP_Sun_a.Carrefour_A
attr processid 6419
attr repetition 25
attr replication #25
attr resultdir results
attr runnumber 25
attr seedset 25

vector 0  Carrefour_A  queueingTime:vector  ETV
attr ""  ""
attr source  startBeingServed
0	4	4	4
