version 2
run General-23-20160117-11:15:11-6409
attr configname General
attr datetime 20160117-11:15:11
attr experiment General
attr inifile Carrefour_A.ini
attr iterationvars ""
attr iterationvars2 $repetition=23
attr measurement ""
attr network simulation_A_EXP_Sun_a.Carrefour_A
attr processid 6409
attr repetition 23
attr replication #23
attr resultdir results
attr runnumber 23
attr seedset 23

vector 0  Carrefour_A  queueingTime:vector  ETV
attr ""  ""
attr source  startBeingServed
0	4	4	4
