version 2
run General-34-20160117-11:15:14-6464
attr configname General
attr datetime 20160117-11:15:14
attr experiment General
attr inifile Carrefour_A.ini
attr iterationvars ""
attr iterationvars2 $repetition=34
attr measurement ""
attr network simulation_A_EXP_Sun_a.Carrefour_A
attr processid 6464
attr repetition 34
attr replication #34
attr resultdir results
attr runnumber 34
attr seedset 34

vector 0  Carrefour_A  queueingTime:vector  ETV
attr ""  ""
attr source  startBeingServed
0	4	4	4
