version 2
run General-20-20160117-11:15:10-6394
attr configname General
attr datetime 20160117-11:15:10
attr experiment General
attr inifile Carrefour_A.ini
attr iterationvars ""
attr iterationvars2 $repetition=20
attr measurement ""
attr network simulation_A_EXP_Sun_a.Carrefour_A
attr processid 6394
attr repetition 20
attr replication #20
attr resultdir results
attr runnumber 20
attr seedset 20

vector 0  Carrefour_A  queueingTime:vector  ETV
attr ""  ""
attr source  startBeingServed
0	4	4	4
